Siesta Version  : 5.0.0-alpha-10-g89f2f52d8-dirty
Architecture    : unknown
Compiler version: GNU Fortran (Ubuntu 9.3.0-17ubuntu1~20.04) 9.3.0
Compiler flags  : gfortran -O2 -fPIC -ftree-vectorize
PP flags        : -DFC_HAVE_ABORT -DSIESTA__DIAG_2STAGE -DSIESTA__MRRR
Libraries       : libsiestaLAPACK.a libsiestaBLAS.a
Directory       : /home/runner/work/temp/temp/input-folder
SERIAL version

* Running in serial mode
>> Start of run:  26-JUN-2021  18:07:10

                           ***********************       
                           *  WELCOME TO SIESTA  *       
                           ***********************       

reinit: Reading from standard input
reinit: Dumped input in INPUT_TMP.43534
************************** Dump of input data file ****************************
SystemName          H2 molecule
SystemLabel         h2
NumberOfAtoms       2
NumberOfSpecies     1
%block ChemicalSpeciesLabel
 1  1  H      # Species index, atomic number, species label
%endblock ChemicalSpeciesLabel
AtomicCoordinatesFormat  Ang
%block AtomicCoordinatesAndAtomicSpecies
 0.000  0.000  0.000  1
 1.000  0.000  0.000  1
%endblock AtomicCoordinatesAndAtomicSpecies
DM.NumberPulay     3
************************** End of input data file *****************************

reinit: -----------------------------------------------------------------------
reinit: System Name: H2 molecule
reinit: -----------------------------------------------------------------------
reinit: System Label: h2
reinit: -----------------------------------------------------------------------

initatom: Reading input for the pseudopotentials and atomic orbitals ----------
Species number:   1 Atomic number:    1 Label: H

Ground state valence configuration:   1s01
Reading pseudopotential information in formatted form from H.psf

Valence configuration for pseudopotential generation:
1s( 1.00) rc: 1.25
2p( 0.00) rc: 1.25
3d( 0.00) rc: 1.25
4f( 0.00) rc: 1.25
For H, standard SIESTA heuristics set lmxkb to 2
 (one more than the basis l, including polarization orbitals).
Use PS.lmax or PS.KBprojectors blocks to override.

<basis_specs>
===============================================================================
H                    Z=   1    Mass=  1.0100        Charge= 0.17977+309
Lmxo=0 Lmxkb= 2    BasisType=split      Semic=F
L=0  Nsemic=0  Cnfigmx=1
          i=1  nzeta=2  polorb=1  (1s)
            splnorm:   0.15000    
               vcte:    0.0000    
               rinn:    0.0000    
               qcoe:    0.0000    
               qyuk:    0.0000    
               qwid:   0.10000E-01
                rcs:    0.0000      0.0000    
            lambdas:    1.0000      1.0000    
-------------------------------------------------------------------------------
L=0  Nkbl=1  erefs: 0.17977+309
L=1  Nkbl=1  erefs: 0.17977+309
L=2  Nkbl=1  erefs: 0.17977+309
===============================================================================
</basis_specs>

atom: Called for H                     (Z =   1)

read_vps: Pseudopotential generation method:
read_vps: ATM3      Troullier-Martins                       
Valence charge for ps generation:    1.00000

xc_check: Exchange-correlation functional:
xc_check: Ceperley-Alder
V l=0 = -2*Zval/r beyond r=  1.2343
V l=1 = -2*Zval/r beyond r=  1.2189
V l=2 = -2*Zval/r beyond r=  1.2189
All V_l potentials equal beyond r=  1.2343
This should be close to max(r_c) in ps generation
All pots = -2*Zval/r beyond r=  1.2343

VLOCAL1: 99.0% of the norm of Vloc inside     28.493 Ry
VLOCAL1: 99.9% of the norm of Vloc inside     64.935 Ry
atom: Maximum radius for 4*pi*r*r*local-pseudopot. charge    1.45251
atom: Maximum radius for r*vlocal+2*Zval:    1.21892

KBgen: Kleinman-Bylander projectors: 
GHOST: No ghost state for L =  0
   l= 0   rc=  1.364359   el= -0.467325   Ekb= -2.005361   kbcos= -0.336422
GHOST: No ghost state for L =  1
   l= 1   rc=  1.434438   el=  0.001430   Ekb= -0.501708   kbcos= -0.021697
GHOST: No ghost state for L =  2
   l= 2   rc=  1.470814   el=  0.002365   Ekb= -0.190555   kbcos= -0.002281

KBgen: Total number of  Kleinman-Bylander projectors:    9
atom: -------------------------------------------------------------------------

atom: SANKEY-TYPE ORBITALS:
atom: Selected multiple-zeta basis: split     

SPLIT: Orbitals with angular momentum L= 0

SPLIT: Basis orbitals for state 1s

SPLIT: PAO cut-off radius determined from an
SPLIT: energy shift=  0.020000 Ry

   izeta = 1
                 lambda =    1.000000
                     rc =    4.828263
                 energy =   -0.449375
                kinetic =    0.929372
    potential(screened) =   -1.378747
       potential(ionic) =   -1.915047

   izeta = 2
                 rmatch =    3.854947
              splitnorm =    0.150000
                 energy =   -0.336153
                kinetic =    1.505294
    potential(screened) =   -1.841447
       potential(ionic) =   -2.413582

POLgen: Perturbative polarization orbital with L=  1

POLgen: Polarization orbital for state 1s

   izeta = 1
                     rc =    4.828263
                 energy =    0.706972
                kinetic =    1.396397
    potential(screened) =   -0.689424
       potential(ionic) =   -1.169792
atom: Total number of Sankey-type orbitals:  5

atm_pop: Valence configuration (for local Pseudopot. screening):
 1s( 1.00)                                                            
Vna: chval, zval:    1.00000   1.00000

Vna:  Cut-off radius for the neutral-atom potential:   4.828263

atom: _________________________________________________________________________

prinput: Basis input ----------------------------------------------------------

PAO.BasisType split     

%block ChemicalSpeciesLabel
    1    1 H                       # Species index, atomic number, species label
%endblock ChemicalSpeciesLabel

%block PAO.Basis                 # Define Basis set
H                     1                    # Species label, number of l-shells
 n=1   0   2 P   1                   # n, l, Nzeta, Polarization, NzetaPol
   4.828      3.855   
   1.000      1.000   
%endblock PAO.Basis

prinput: ----------------------------------------------------------------------

coor:   Atomic-coordinates input format  =     Cartesian coordinates
coor:                                          (in Angstroms)

siesta: Atomic coordinates (Bohr) and species
siesta:      0.00000   0.00000   0.00000  1        1
siesta:      1.88973   0.00000   0.00000  1        2

siesta: Automatic unit cell vectors (Ang):
siesta:    6.721012    0.000000    0.000000
siesta:    0.000000    5.621012    0.000000
siesta:    0.000000    0.000000    5.621012

siesta: System type = molecule  

initatomlists: Number of atoms, orbitals, and projectors:      2    10    18

siesta: ******************** Simulation parameters ****************************
siesta:
siesta: The following are some of the parameters of the simulation.
siesta: A complete list of the parameters used, including default values,
siesta: can be found in file out.fdf
siesta:
redata: Spin configuration                          = none
redata: Number of spin components                   = 1
redata: Time-Reversal Symmetry                      = T
redata: Spin spiral                                 = F
redata: Long output                                 =   F
redata: Number of Atomic Species                    =        1
redata: Charge density info will appear in .RHO file
redata: Write Mulliken Pop.                         = NO
redata: Matel table size (NRTAB)                    =     1024
redata: Mesh Cutoff                                 =   300.0000 Ry
redata: Net charge of the system                    =     0.0000 |e|
redata: Min. number of SCF Iter                     =        0
redata: Max. number of SCF Iter                     =     1000
redata: SCF convergence failure will abort job
redata: SCF mix quantity                            = Hamiltonian
redata: Mix DM or H after convergence               =   F
redata: Recompute H after scf cycle                 =   F
redata: Mix DM in first SCF step                    =   T
redata: Write Pulay info on disk                    =   F
redata: New DM Occupancy tolerance                  = 0.000000000001
redata: No kicks to SCF
redata: DM Mixing Weight for Kicks                  =     0.5000
redata: Require Harris convergence for SCF          =   F
redata: Harris energy tolerance for SCF             =     0.000100 eV
redata: Require DM convergence for SCF              =   T
redata: DM tolerance for SCF                        =     0.000100
redata: Require EDM convergence for SCF             =   F
redata: EDM tolerance for SCF                       =     0.001000 eV
redata: Require H convergence for SCF               =   T
redata: Hamiltonian tolerance for SCF               =     0.001000 eV
redata: Require (free) Energy convergence for SCF   =   F
redata: (free) Energy tolerance for SCF             =     0.000100 eV
redata: Using Saved Data (generic)                  =   F
redata: Use continuation files for DM               =   F
redata: Neglect nonoverlap interactions             =   F
redata: Method of Calculation                       = Diagonalization
redata: Electronic Temperature                      =   299.9869 K
redata: Fix the spin of the system                  =   F
redata: Max. number of TDED Iter                    =        1
redata: Number of TDED substeps                     =        3
redata: Dynamics option                             = Single-point calculation
mix.SCF: Pulay mixing                            = Pulay
mix.SCF:    Variant                              = stable
mix.SCF:    History steps                        = 3
mix.SCF:    Linear mixing weight                 =     0.250000
mix.SCF:    Mixing weight                        =     0.250000
mix.SCF:    SVD condition                        = 0.1000E-07
redata: ***********************************************************************

%block SCF.Mixers
  Pulay
%endblock SCF.Mixers

%block SCF.Mixer.Pulay
  # Mixing method
  method pulay
  variant stable

  # Mixing options
  weight 0.2500
  weight.linear 0.2500
  history 3
%endblock SCF.Mixer.Pulay

DM_history_depth set to one: no extrapolation allowed by default for geometry relaxation
Size of DM history Fstack: 1
Total number of electrons:     2.000000
Total ionic charge:     2.000000

siesta: k-grid: Number of k-points =         1
siesta: k-point is Gamma-only

diag: Algorithm                                     = D&C
diag: Used triangular part                          = Lower
diag: Absolute tolerance                            =  0.100E-15
diag: Orthogonalization factor                      =  0.100E-05
diag: Memory factor                                 =  1.0000


ts: **************************************************************
ts: Save H and S matrices                           =    F
ts: Save DM and EDM matrices                        =    F
ts: Only save the overlap matrix S                  =    F
ts: **************************************************************

************************ Begin: TS CHECKS AND WARNINGS ************************
************************ End: TS CHECKS AND WARNINGS **************************


                     ====================================
                        Single-point calculation
                     ====================================

outcell: Unit cell vectors (Ang):
        6.721012    0.000000    0.000000
        0.000000    5.621012    0.000000
        0.000000    0.000000    5.621012

outcell: Cell vector modules (Ang)   :    6.721012    5.621012    5.621012
outcell: Cell angles (23,13,12) (deg):     90.0000     90.0000     90.0000
outcell: Cell volume (Ang**3)        :    212.3556
<dSpData1D:S at geom step 0
  <sparsity:sparsity for geom step 0
    nrows_g=10 nrows=10 sparsity=1.0000 nnzs=100, refcount: 7>
  <dData1D:(new from dSpData1D) n=100, refcount: 1>
refcount: 1>
new_DM -- step:     1
Initializing Density Matrix...
DM filled with atomic data:
<dSpData2D:DM initialized from atoms
  <sparsity:sparsity for geom step 0
    nrows_g=10 nrows=10 sparsity=1.0000 nnzs=100, refcount: 8>
  <dData2D:DM n=100 m=1, refcount: 1>
refcount: 1>
No. of atoms with KB's overlaping orbs in proc 0. Max # of overlaps:       2      10

InitMesh: MESH = 72 x 60 x 60 = 259200
InitMesh: Mesh cutoff (required, used) =   300.000   314.902 Ry
New grid distribution [1]: sub = 2

stepf: Fermi-Dirac step function

siesta: Program's energy decomposition (eV):
siesta: Ebs     =       -17.234636
siesta: Eions   =        39.414643
siesta: Ena     =        10.419589
siesta: Ekin    =        25.275867
siesta: Enl     =        -7.934266
siesta: Eso     =         0.000000
siesta: Edftu   =         0.000000
siesta: DEna    =        -2.267021
siesta: DUscf   =         0.400342
siesta: DUext   =         0.000000
siesta: Ex      =       -14.016748
siesta: Ec      =        -2.504025
siesta: Exc     =       -16.520772
siesta: eta*DQ  =         0.000000
siesta: Emadel  =         0.000000
siesta: Emeta   =         0.000000
siesta: Emolmec =         0.000000
siesta: Ekinion =         0.000000
siesta: Eharris =       -34.220323
siesta: Etot    =       -30.040903
siesta: FreeEng =       -30.040903

        iscf     Eharris(eV)        E_KS(eV)     FreeEng(eV)     dDmax    Ef(eV) dHmax(eV)
   scf:    1      -34.220323      -30.040903      -30.040903  0.784594 -2.812692  1.762517
timer: Routine,Calls,Time,% = IterSCF        1       0.052  14.45
   scf:    2      -30.073209      -30.057291      -30.057291  0.017307 -2.391503  1.230204
   scf:    3      -30.086974      -30.073500      -30.073500  0.043660 -1.426463  0.013449
   scf:    4      -30.073494      -30.073497      -30.073497  0.000633 -1.447285  0.016243
   scf:    5      -30.073504      -30.073501      -30.073501  0.000681 -1.435243  0.000115
   scf:    6      -30.073501      -30.073501      -30.073501  0.000004 -1.435313  0.000041

SCF Convergence by DM+H criterion
max |DM_out - DM_in|         :     0.0000041577
max |H_out - H_in|      (eV) :     0.0000407580
SCF cycle converged after 6 iterations

Using DM_out to compute the final energy and forces
No. of atoms with KB's overlaping orbs in proc 0. Max # of overlaps:       2      10

siesta: E_KS(eV) =              -30.0735

siesta: E_KS - E_eggbox =       -30.0735

siesta: Atomic forces (eV/Ang):
----------------------------------------
   Tot   -0.001480   -0.000000   -0.000000
----------------------------------------
   Max    3.707867
   Res    2.140311    sqrt( Sum f_i^2 / 3N )
----------------------------------------
   Max    3.707867    constrained

Stress tensor Voigt[x,y,z,yz,xz,xy] (kbar):       27.97       -0.01       -0.01       -0.00        0.00       -0.00
(Free)E + p*V (eV/cell)      -31.3084
Target enthalpy (eV/cell)      -30.0735

siesta: Program's energy decomposition (eV):
siesta: Ebs     =       -17.869032
siesta: Eions   =        39.414643
siesta: Ena     =        10.419589
siesta: Ekin    =        24.268109
siesta: Enl     =        -7.661592
siesta: Eso     =         0.000000
siesta: Edftu   =         0.000000
siesta: DEna    =        -1.782964
siesta: DUscf   =         0.282172
siesta: DUext   =         0.000000
siesta: Ex      =       -13.705670
siesta: Ec      =        -2.478501
siesta: Exc     =       -16.184171
siesta: eta*DQ  =         0.000000
siesta: Emadel  =         0.000000
siesta: Emeta   =         0.000000
siesta: Emolmec =         0.000000
siesta: Ekinion =         0.000000
siesta: Eharris =       -30.073501
siesta: Etot    =       -30.073501
siesta: FreeEng =       -30.073501

siesta: Final energy (eV):
siesta:  Band Struct. =     -17.869032
siesta:       Kinetic =      24.268109
siesta:       Hartree =      18.531848
siesta:       Edftu   =       0.000000
siesta:       Eso     =       0.000000
siesta:    Ext. field =       0.000000
siesta:         Exch. =     -13.705670
siesta:         Corr. =      -2.478501
siesta:   Exch.-corr. =     -16.184171
siesta:  Ion-electron =     -58.088225
siesta:       Ion-ion =       1.398939
siesta:       Ekinion =       0.000000
siesta:         Total =     -30.073501
siesta:         Fermi =      -1.435313

siesta: Atomic forces (eV/Ang):
siesta:      1    3.706388   -0.000000   -0.000000
siesta:      2   -3.707867   -0.000000   -0.000000
siesta: ----------------------------------------
siesta:    Tot   -0.001480   -0.000000   -0.000000

siesta: Stress tensor (static) (eV/Ang**3):
siesta:     0.017457   -0.000000    0.000000
siesta:    -0.000000   -0.000006   -0.000000
siesta:     0.000000   -0.000000   -0.000006

siesta: Cell volume =        212.355637 Ang**3

siesta: Pressure (static):
siesta:                Solid            Molecule  Units
siesta:          -0.00006334          0.00000004  Ry/Bohr**3
siesta:          -0.00581531          0.00000374  eV/Ang**3
siesta:          -9.31726179          0.00599290  kBar
(Free)E+ p_basis*V_orbitals  =         -29.635876
(Free)Eharris+ p_basis*V_orbitals  =         -29.635876

siesta: Electric dipole (a.u.)  =   -0.000008   -0.000000   -0.000000
siesta: Electric dipole (Debye) =   -0.000020   -0.000000   -0.000000

cite: Please see "h2.bib" for an exhaustive BiBTeX file.
cite: Please clearly indicate Siesta version in published work: 5.0.0-alpha-10-g89f2f52d8-dirty
cite: This calculation has made use of the following articles
cite: which are encouraged to be cited in a published work.
        Primary SIESTA paper
          DOI: www.doi.org/10.1088/0953-8984/14/11/302


timer: Elapsed wall time (sec) =       0.883
timer: CPU execution times (sec):

Routine            Calls   Time/call    Tot.time        %
siesta                 1       0.840       0.840   100.00
Setup                  1       0.041       0.041     4.89
bands                  1       0.000       0.000     0.00
KSV_init               1       0.000       0.000     0.00
IterGeom               1       0.798       0.798    94.98
geom_init              1       0.269       0.269    32.07
state_init             1       0.007       0.007     0.89
hsparse                1       0.000       0.000     0.01
overlap                1       0.007       0.007     0.83
Setup_H0               1       0.204       0.204    24.23
naefs                  2       0.000       0.000     0.03
MolMec                 2       0.000       0.000     0.00
kinefsm                2       0.003       0.005     0.61
nlefsm                 2       0.011       0.022     2.59
DHSCF_Init             1       0.177       0.177    21.03
DHSCF1                 1       0.025       0.025     2.92
INITMESH               1       0.000       0.000     0.00
DHSCF2                 1       0.152       0.152    18.10
REMESH                 1       0.015       0.015     1.79
REORD                 24       0.000       0.010     1.22
PHION                  1       0.096       0.096    11.38
COMM_BSC              35       0.000       0.011     1.34
POISON                 9       0.018       0.162    19.25
fft                   18       0.007       0.117    13.94
setup_H                7       0.056       0.390    46.42
DHSCF                  8       0.073       0.582    69.33
DHSCF3                 8       0.056       0.444    52.90
rhoofd                 8       0.006       0.049     5.85
XC                     8       0.021       0.169    20.09
GXC-CellXC             8       0.019       0.155    18.43
cellXC                 8       0.019       0.155    18.42
vmat                   8       0.005       0.038     4.56
IterSCF                6       0.056       0.333    39.67
compute_dm             6       0.000       0.001     0.07
diagon                 6       0.000       0.001     0.07
r-eigvec               6       0.000       0.000     0.05
r-buildHS              6       0.000       0.000     0.00
rdiag                  6       0.000       0.000     0.04
rdiag1                 6       0.000       0.000     0.00
rdiag2                 6       0.000       0.000     0.01
rdiag3                 6       0.000       0.000     0.02
rdiag4                 6       0.000       0.000     0.00
r-buildD               6       0.000       0.000     0.00
MIXER                  5       0.000       0.000     0.03
PostSCF                1       0.195       0.195    23.19
DHSCF4                 1       0.138       0.138    16.43
dfscf                  1       0.115       0.115    13.70
overfsm                1       0.000       0.000     0.01
state_analysis         1       0.000       0.000     0.04
siesta_move            1       0.000       0.000     0.00
Analysis               1       0.000       0.000     0.06
optical                1       0.000       0.000     0.00
  

>> End of run:  26-JUN-2021  18:07:11
Job completed
